Variables = "iter""Cx""Cy""Cx_p""Cy_p""Cx_v""Cy_v""Axial(imin) - (N)""Axial(imax) - (N)""Axial(jmin) - (N)""Axial(jmax) - (N)""Normal(imin) - (N)""Normal(imax) - (N)""Normal(jmin) - (N)""Normal(jmax) - (N)"
zone t="blck 001"
Datapacking = POINT
        0 -0.516552564448729E-01  0.595053255405231E+00 -0.516552564448729E-01  0.595053255405231E+00  0.000000000000000E+00  0.000000000000000E+00  0.000000000000000E+00  0.000000000000000E+00 -0.516552564448729E-01  0.000000000000000E+00  0.000000000000000E+00  0.000000000000000E+00  0.595053255405231E+00  0.000000000000000E+00
